opam-version: "2.0"
build: ["/usr/bin/rpm" "-i" "--root=/root/chroot" "OpenMolcas-24.02-1.fc40.x86_64.rpm"]
remove: ["/usr/bin/rpm" "-e" "OpenMolcas-24.02-1.fc40.x86_64.rpm"]
depends: [
  "CheMPS2" 
  "bash" 
  "flexiblas-netlib64" 
  "glibc" 
  "hdf5" 
  "libgcc" 
  "libgfortran" 
  "libgomp" 
  "libxc" 
  "python3" 
  "python3-pyparsing" 
  "python3-setuptools" 
]
extra-source "OpenMolcas-24.02-1.fc40.x86_64.rpm" {
  src: "https://fedora.mirrorservice.org/fedora/linux/releases/40/Everything/x86_64/os/Packages/o/OpenMolcas-24.02-1.fc40.x86_64.rpm"
}
